<VTKFile type="UnstructuredGrid" version="0.1" byte_order="LittleEndian">
<UnstructuredGrid>
	<Piece NumberOfPoints="16" NumberOfCells="9">
		<PointData Scalars="something">
			<DataArray type="Float64" Name="something" Format="ascii">
				0
				1
				2
				3
				4
				5
				6
				7
				8
				9
				10
				11
				12
				13
				14
				15
			</DataArray>
		</PointData>
		<Points>
		<DataArray type="Float64" NumberOfComponents="3" Format="ascii">
			0.0 0.0 0.0
			1.0 0.0 0.0
			2.0 0.0 0.0
			3.0 0.0 0.0
			0.0 1.0 0.0
			1.0 1.0 0.0
			2.0 1.0 0.0
			3.0 1.0 0.0
			0.0 2.0 0.0
			1.0 2.0 0.0
			2.0 2.0 0.0
			3.0 2.0 0.0
			0.0 3.0 0.0
			1.0 3.0 0.0
			2.0 3.0 0.0
			3.0 3.0 0.0
		</DataArray>
		</Points>
		<Cells>
			<DataArray type="UInt32" Name="connectivity" Format="ascii">
				0 1 5 4 
				1 2 6 5 
				3 7 6 2 
				9 8 4 5 
				5 6 10 9 
				10 6 7 11 
				8 9 13 12 
				10 14 13 9 
				14 10 11 15 
			</DataArray>
			<DataArray type="UInt32" Name="offsets" Format="ascii">
				4
				8
				12
				16
				20
				24
				28
				32
				36
			</DataArray>
			<DataArray type="Int32" Name="types" Format="ascii">
				9
				9
				9
				9
				9
				9
				9
				9
				9
			</DataArray>
		</Cells>
	</Piece>
</UnstructuredGrid>
</VTKFile>